# vtk DataFile Version 2.0
classy_blocks debug output
ASCII

DATASET UNSTRUCTURED_GRID
POINTS 34 float
62.3761 16.2173 65.7138
62.37756803760123 16.216781501613184 65.7138
62.377255154908276 16.217002812746188 65.71261641578452
62.37614559212781 16.217429086145014 65.71224911860519
58.4897 24.7325 59.0573
58.490380620741256 24.731883656488908 59.05613985926249
58.48982416972459 24.73101715696169 59.05672062053536
58.48918208210079 24.731173335443337 59.05770096465143
62.37463196239877 16.21781849838682 65.7138
62.37501443406611 16.217794216277674 65.71261641578452
58.48901937925874 24.733116343511096 59.05846014073751
58.48878531276393 24.731957905175555 59.0584913868483
62.374944845091726 16.217597187253816 65.71498358421549
62.37605440787219 16.21717091385499 65.71535088139483
58.489575830275406 24.733982843038312 59.05787937946464
58.49021791789921 24.733826664556666 59.056899035348565
62.37718556593389 16.21680578372233 65.71498358421549
58.49061468723607 24.733042094824448 59.05610861315169
62.377935047001536 16.21665187701648 65.7138
62.37743787230701 16.21695580495393 65.71242920156115
58.49055077592657 24.731729570611133 59.05584982407811
58.48984381035366 24.730782607274232 59.056628976801775
62.376156990159764 16.217461357681266 65.71186139825649
58.48905260262599 24.73084166930417 59.05780120581429
62.374842723949854 16.21787238926731 65.71242920156115
58.48864063149976 24.731872158964823 59.05867983525833
62.374264952998466 16.217948122983522 65.7138
58.48884922407343 24.73327042938887 59.05875017592189
62.37476212769299 16.217644195046073 65.71517079843886
58.489556189646336 24.73421739272577 59.05797102319822
62.37604300984024 16.217138642318737 65.71573860174352
58.49034739737401 24.734158330695834 59.0567987941857
62.37735727605015 16.216727610732693 65.71517079843886
58.490759368500235 24.73312784103518 59.055920164741664

CELLS 12 108
8 0 1 2 3 4 5 6 7
8 8 0 3 9 10 4 7 11
8 12 13 0 8 14 15 4 10
8 13 16 1 0 15 17 5 4
8 1 18 19 2 5 20 21 6
8 2 19 22 3 6 21 23 7
8 3 22 24 9 7 23 25 11
8 9 24 26 8 11 25 27 10
8 8 26 28 12 10 27 29 14
8 12 28 30 13 14 29 31 15
8 13 30 32 16 15 31 33 17
8 16 32 18 1 17 33 20 5

CELL_TYPES 12
12
12
12
12
12
12
12
12
12
12
12
12

CELL_DATA 12
SCALARS block_ids float 1
LOOKUP_TABLE default
0
1
2
3
4
5
6
7
8
9
10
11
